# vtk DataFile Version 2.0
SHAPE_OBS3, Created by Gmsh 4.11.1 
ASCII
DATASET UNSTRUCTURED_GRID
POINTS 491 double
0 0 0
6 0 0
6 4 0
0 4 0
0 0 3
6 0 3
6 4 3
0 4 3
3 0.5 0
4 0.5 0
4 2.5 0
3 2.5 0
3 2.5 1
3 0.5 1
4 0.5 1
4 2.5 1
1 2 0
1.5 2 0
1.5 3 0
1 3 0
1 3 2.25
1 2 2.25
1.5 2 2.25
1.5 3 2.25
0 3.42857142857143 3
0 2.857142857142859 3
0 2.285714285714289 3
0 1.71428571428572 3
0 1.142857142857147 3
0 0.5714285714285738 3
0 0 2.4
0 0 1.8
0 0 1.2
0 0 0.6000000000000001
0 0.5714285714285704 0
0 1.142857142857142 0
0 1.714285714285711 0
0 2.28571428571428 0
0 2.857142857142853 0
0 3.428571428571426 0
0 4 0.6
0 4 1.2
0 4 1.8
0 4 2.4
0.6 0 3
1.2 0 3
1.8 0 3
2.4 0 3
3 0 3
3.6 0 3
4.2 0 3
4.8 0 3
5.4 0 3
6 0 2.4
6 0 1.8
6 0 1.2
6 0 0.6000000000000001
5.4 0 0
4.8 0 0
4.2 0 0
3.6 0 0
3 0 0
2.4 0 0
1.8 0 0
1.2 0 0
0.5999999999999996 0 0
0.6 4 3
1.2 4 3
1.8 4 3
2.4 4 3
3 4 3
3.6 4 3
4.2 4 3
4.8 4 3
5.4 4 3
6 3.42857142857143 3
6 2.857142857142859 3
6 2.285714285714289 3
6 1.71428571428572 3
6 1.142857142857147 3
6 0.5714285714285738 3
6 4 2.4
6 4 1.8
6 4 1.2
6 4 0.6000000000000001
6 3.42857142857143 0
6 2.857142857142859 0
6 2.285714285714289 0
6 1.71428571428572 0
6 1.142857142857147 0
6 0.5714285714285738 0
5.4 4 0
4.8 4 0
4.2 4 0
3.6 4 0
3 4 0
2.4 4 0
1.8 4 0
1.2 4 0
0.5999999999999996 4 0
3 2 0
3 1.500000000000002 0
3 1.000000000000002 0
3.499999999999999 0.5 0
4 0.9999999999999993 0
4 1.499999999999998 0
4 1.999999999999998 0
3.500000000000001 2.5 0
3 2.5 0.4999999999999988
3 2 1
3 1.500000000000002 1
3 1.000000000000002 1
3 0.5 0.5000000000000012
3.499999999999999 0.5 1
4 0.5 0.5000000000000012
4 2 1
4 1.500000000000002 1
4 1.000000000000002 1
3.500000000000001 2.5 1
4 2.5 0.5000000000000012
1 2.500000000000001 2.25
1.5 2.499999999999999 2.25
1 2.500000000000001 0
1.5 2.499999999999999 0
1 3 1.6875
1 3 1.125
1 3 0.5625
1.5 3 1.6875
1.5 3 1.125
1.5 3 0.5625
1.5 2 1.6875
1.5 2 1.125
1.5 2 0.5625
1 2 1.6875
1 2 1.125
1 2 0.5625
4.495096189432334 0 2.483215974080634
0.4910966848910601 0 1.524099905916908
2.1 0 2.480384757729337
3.307983833955357 0 2.494801847547959
3.892016166044643 0 0.505198152452041
2.7 0 0.5196152422706634
1.504903810567666 0 0.5167840259193661
5.50890331510894 0 1.475900094083092
5.058344723197251 0 0.5757061638698935
0.9416552768027486 0 2.424293836130107
3.908497171186639 0 2.487868944107614
4.208582727391853 0 1.967098217930227
4.803981913965282 0 2.019078472028379
4.54744097215518 0 1.453574369840215
3.90476392002951 0 1.467768000499551
4.465703329313973 0 0.5004360401607116
2.100817301761277 0 0.5191433728787803
1.80095351872149 0 1.038679970250796
1.197607460386942 0 0.9818845593351251
1.454148402197043 0 1.547388661523289
2.092516986819755 0 1.537229221278121
2.399047967883754 0 1.035457336338613
2.699282734243495 0 1.54667896598201
2.991737949732517 0 1.031964364352587
3.29929743400092 0 1.511004428850802
0.555411173361124 0 0.9328788349818328
1.532966031693467 0 2.497161111536185
5.444751007695225 0 2.067219433524647
2.70048492674656 0 2.488408843215404
3.28930851867417 0 0.5113919052528124
5.522404993034648 0 0.915197355408764
5.084099771091919 0 2.521713899182056
0.9161921548095098 0 0.4784629841296086
0.4775950069653518 0 2.084802644591236
0.9418976019283498 0 1.835604595019043
5.05836729379702 0 1.164555910208207
3.58359009280055 0 1.004224812261539
3.604854181094047 0 1.991359446867803
4.172895594497633 0 0.9787547570211759
1.82262872234472 0 2.0234086379041
2.4 0 2.019615242270664
3 0 2.019615242270664
5.560769515458674 0 0.4392304845413262
0.4392304845413268 0 0.4392304845413268
5.560769515458674 0 2.560769515458674
0.439230484541326 0 2.560769515458674
4.643859086641942 0 0.9413271669129972
1.356140913358056 0 2.058672833087004
5.069250672644163 0 1.625630311134283
0.9307493273558376 0 1.374369688865717
0 2.008577197655752 2.472913123951833
0 1.414574411459902 0.4702317635963158
0 2.587405040647491 0.4816999947205916
0 0.5136871967923948 1.492210776048729
0 3.507035625844333 1.536650412500054
0 3.089075571786403 2.480590602715284
0 0.8652653413229274 2.56847508238132
0 0.5705516719383001 0.886807809397624
0 1.061348237299722 1.240641424701185
0 1.046753101007703 1.759291857886044
0 1.547095122978345 1.50635161007439
0 1.533418091039425 2.047443889220368
0 2.033782618582874 1.779788714639811
0 2.014256482407995 1.196509125733663
0 2.552523091690614 1.469906785450693
0 2.534738817995903 2.127545148658474
0 3.002813637654133 1.840965428825484
0 3.444219816478918 0.9477805330914459
0 1.998353714382564 0.5794744000434159
0 0.5677912112356438 2.113068805699423
0 3.530970178866472 2.106147188868431
0 3.123616889027264 0.4837632935774399
0 2.858469682706174 0.96103400038162
0 0.878423310479884 0.4316427635771038
0 1.414005441596333 2.559946114411339
0 1.550674276670789 0.974730865207043
0 2.559729410450336 2.620077607662826
0 2.402201602366968 0.9377248612659966
0 0.4192625986949494 0.4196295676444701
0 3.576483011694177 0.4312406691347972
0 0.4086552426659911 2.592391007116694
0 3.586896237913965 2.578676689169762
0 3.044850448535727 1.394907795185601
0 1.085446637240406 2.209645149919699
0 1.095114381569719 0.8008109252958544
1.5 4 2.480384757729337
4.495096189432334 4 2.483215974080634
2.7 4 0.5196152422706632
3.892016166044643 4 0.5051981524520408
3.315967667910714 4 2.499394163694713
1.535002802680896 4 0.4994063647204561
0.519615242270663 4 1.5
5.50890331510894 4 1.475900094083092
5.058344723197251 4 0.5757061638698935
3.909827810179198 4 2.488634330132073
4.20880450055728 4 1.967225782267637
4.804018876159519 4 2.019099732751281
4.547477934349418 4 1.453595630563117
3.904785921335604 4 1.467780655691754
4.465703329313973 4 0.5004360401607115
2.105833800446816 4 0.5162470960122952
2.400972300074469 4 1.038669126831598
2.992178216057054 4 1.034527456239748
2.698858419355253 4 1.548143555471569
2.052009381260178 4 1.517860321964767
2.36187217459632 4 2.000709523334566
3.299303759457985 4 1.511660665742419
0.5080632270334995 4 0.9025424215685259
0.9614643485166212 4 1.190022480513212
1.056345777684796 4 1.858207866320523
0.5091027856549442 4 2.100993041643362
3.289381896394926 4 0.5118190872340058
5.444754779347698 4 2.067221602986168
1.8 4 1.039230484541326
5.522404993034648 4 0.915197355408764
5.08410656006637 4 2.521717804212793
0.9415039625498487 4 0.5483188277905571
0.8841131746468447 4 2.500059196858649
1.662395930223121 4 1.929945044647264
5.058373454162727 4 1.164559453662025
3.583654613134889 4 1.004660427255845
2.688322806462482 4 2.5046095973183
2.052096996267856 4 2.508041569829082
3.618292484333086 4 1.991241798895266
4.172916175136745 4 0.9788330121727443
2.999999999999999 4 2.019512327051439
5.560769515458674 4 0.4392304845413262
5.560769515458674 4 2.560769515458674
0.4392304845413264 4 2.560769515458674
0.439230484541326 4 0.4392304845413264
1.48546823172735 4 1.411705119222493
4.643859086641942 4 0.9413271669129972
1.371247304516003 4 0.9356861276169575
5.069250672644163 4 1.625630311134283
6 2.008577197655753 2.472913123951834
6 2.587405040647498 0.4816999947205907
6 1.414574411459909 0.4702317635963171
6 3.507035625844333 1.536650412500056
6 0.5136871967923948 1.492210776048729
6 3.089075571786404 2.480590602715285
6 0.8652653413229277 2.56847508238132
6 0.5705516719383024 0.8868078093976249
6 1.061348237299724 1.240641424701186
6 1.046753101007704 1.759291857886044
6 1.547095122978347 1.506351610074391
6 1.533418091039426 2.047443889220369
6 2.033782618582876 1.779788714639813
6 2.014256482407999 1.196509125733664
6 2.552523091690617 1.469906785450694
6 2.534738817995904 2.127545148658476
6 3.002813637654135 1.840965428825487
6 3.44421981647892 0.9477805330914452
6 1.99835371438257 0.5794744000434162
6 0.5677912112356442 2.113068805699423
6 3.530970178866473 2.106147188868431
6 3.12361688902727 0.4837632935774376
6 2.858469682706179 0.9610340003816188
6 0.8784233104798889 0.431642763577105
6 1.414005441596333 2.559946114411339
6 1.550674276670793 0.9747308652070443
6 2.559729410450337 2.620077607662827
6 2.402201602366973 0.9377248612659969
6 0.4192625986949523 0.4196295676444717
6 3.57648301169418 0.431240669134795
6 0.4086552426659913 2.592391007116694
6 3.586896237913965 2.578676689169762
6 3.044850448535726 1.394907795185603
6 1.085446637240407 2.209645149919699
6 1.095114381569724 0.8008109252958556
3.433012701892217 1.750000000000002 1
3.551158731497008 1.250000000000002 1
3.633158858418343 2.171274166920488 1
3.363394611684695 0.8279797125950982 1
3.702728846152462 0.7965092207635381 1
3.288991032403427 2.210093933138196 1
3.706249999999999 0.5 0.2937500000000005
3.375 0.5 0.375
3.64375 0.5 0.6479166666666669
3.28125 0.5 0.7187499999999996
4 1.749999999999998 0.4330127018922186
4 1.250000000000002 0.5669872981077815
4 0.8287258330795129 0.3668411415816584
4 2.171274166920487 0.6331588584183421
4 2.210093933138195 0.2889910324034258
4 0.7899060668618054 0.7110089675965745
3 1.750000000000002 0.4330127018922176
3 1.250000000000002 0.5669872981077815
3 0.8287258330795133 0.3668411415816581
3 2.171274166920488 0.6331588584183421
3 0.7899060668618058 0.7110089675965741
3 2.210093933138195 0.2889910324034267
3.293750000000001 2.5 0.7062499999999995
3.375 2.5 0.3749999999999993
3.647916666666667 2.5 0.64375
3.71875 2.5 0.2812500000000007
1.25 2.75 2.25
1.25 2.25 2.25
1 2.520999768765908 1.467271691280047
1 2.4801629538619 0.791445693188531
1 2.370102564604446 1.89765379425877
1 2.630063538628098 0.3535915463795978
1 2.731315198530319 1.958575206650468
1 2.268753982324553 0.2919434691672608
1.25 2 0.28125
1.25 2 1.96875
1.25 2 1.40625
1.25 2 0.84375
1.25 3 0.84375
1.25 3 0.28125
1.25 3 1.96875
1.25 3 1.40625
[...]
CELL_DATA 978
SCALARS CellEntityIds int 1
LOOKUP_TABLE default
37
37
37
37
37
37
37
37
37
37
37
37
37
37
37
37
37
37
37
37
37
37
37
37
37
37
37
37
37
37
37
37
37
37
37
37
37
37
37
37
37
37
37
37
37
37
37
37
37
37
37
37
37
37
37
37
37
37
37
37
37
37
37
37
37
37
37
37
37
37
37
37
37
37
37
37
37
37
37
37
37
37
37
37
37
37
37
37
37
37
37
37
37
37
37
37
37
37
37
37
37
37
37
37
37
37
37
37
37
37
37
37
37
37
37
37
37
37
37
37
37
37
37
37
37
37
37
37
37
37
37
37
37
37
37
37
37
37
37
37
37
37
37
37
37
37
37
37
37
37
37
37
37
37
37
37
37
37
37
37
37
37
37
37
37
37
37
37
37
37
37
37
37
37
37
37
37
37
37
37
37
37
37
37
37
37
37
37
37
37
37
37
37
37
37
37
37
37
37
37
37
37
37
37
37
37
37
37
37
37
37
37
37
37
37
37
37
37
37
37
37
37
37
37
37
37
37
37
37
37
37
37
37
37
37
37
37
37
37
37
37
37
37
37
37
37
37
37
37
37
37
37
37
37
37
37
37
37
37
37
37
37
37
37
37
37
37
37
37
37
37
37
37
37
37
37
37
37
37
37
37
37
37
37
37
37
37
37
37
37
37
37
37
37
37
37
37
37
37
37
37
37
37
37
37
37
37
37
37
37
37
37
37
37
37
37
37
37
37
37
37
37
37
37
37
37
37
37
37
37
37
37
37
37
37
37
37
37
37
37
37
37
37
37
37
37
37
37
37
37
37
37
37
37
37
37
37
37
37
37
37
37
37
37
37
37
37
37
37
37
37
37
37
37
37
37
37
37
37
37
37
37
37
37
37
37
37
37
37
37
37
37
37
37
37
37
37
37
37
37
37
37
37
37
37
37
37
37
37
37
37
37
37
37
37
37
37
37
37
37
37
37
37
37
37
37
37
37
37
37
37
37
37
37
37
37
37
37
39
39
39
39
39
39
39
39
39
39
39
39
39
39
39
39
39
39
39
39
39
39
39
39
39
39
39
39
39
39
39
39
39
39
39
39
39
39
39
39
39
39
39
39
39
39
39
39
39
39
39
39
39
39
39
39
39
39
39
39
39
39
39
39
39
39
39
39
39
39
39
39
39
39
39
39
39
39
39
39
39
39
39
39
39
39
39
39
39
39
39
39
39
39
40
40
40
40
40
40
40
40
40
40
40
40
40
40
40
40
40
40
40
40
40
40
40
40
40
40
40
40
40
40
40
40
40
40
40
40
40
40
40
40
40
40
40
40
40
40
40
40
40
40
40
40
40
40
40
40
40
40
40
40
40
40
40
40
40
40
40
40
40
40
40
40
40
40
40
40
40
40
40
40
40
40
40
40
41
41
41
41
41
41
41
41
41
41
41
41
41
41
41
41
41
41
41
41
41
41
41
41
41
41
41
41
41
41
41
41
41
41
41
41
41
41
41
41
41
41
41
41
41
41
41
41
41
41
41
41
41
41
41
41
41
41
41
41
41
41
41
41
41
41
41
41
41
41
41
41
41
41
41
41
41
41
41
41
41
41
41
41
41
41
41
41
41
41
41
41
41
41
41
41
41
41
41
41
41
41
41
41
41
41
41
41
41
41
41
41
41
41
41
41
41
41
41
41
41
41
41
41
41
41
41
41
41
41
41
41
41
41
41
41
41
41
41
41
41
41
41
41
41
41
41
41
41
41
41
41
41
41
41
41
41
41
41
41
41
41
41
41
41
41
41
41
41
41
41
41
41
41
41
41
41
41
41
41
41
41
41
41
41
41
41
41
41
41
41
41
41
41
42
42
42
42
42
42
42
42
42
42
42
42
42
42
42
42
42
42
42
42
42
42
42
42
42
42
42
42
42
42
42
42
42
42
42
42
42
42
42
42
42
42
42
42
42
42
42
42
42
42
42
42
42
42
42
42
42
42
42
42
42
42
42
42
42
42
42
42
42
42
42
42
42
42
42
42
42
42
42
42
42
42
42
42
42
42
42
42
42
42
42
42
42
42
42
42
42
42
42
42
42
42
42
42
42
42
42
42
42
42
42
42
42
42
42
42
42
42
42
42
42
42
42
42
42
42
42
42
42
42
42
42
42
42
42
42
42
42
42
42
42
42
42
42
42
42
42
42
42
42
42
42
42
42
42
42
42
42
42
42
42
42
42
42
42
42
42
42
