# vtk DataFile Version 2.0
room_with_partition, Created by Gmsh 4.11.1 
ASCII
DATASET UNSTRUCTURED_GRID
POINTS 360 double
0 -12 0
0 0 0
0 0 -6
0 -12 -6
9.999999999999787 0 0
9.999999999999787 0 -6
10 -4.500000000000171 0
10 -4.500000000000171 -6
10.2 -4.500000000000171 0
10.2 -4.500000000000171 -6
10.2 0 0
10.2 0 -6
20 0 0
20 0 -6
20 -12 0
20 -12 -6
10.2 -12 0
10.2 -12 -6
10.2 -7.500000000000001 0
10.2 -7.500000000000001 -6
9.999999999999998 -7.500000000000001 0
9.999999999999998 -7.500000000000001 -6
9.999999999999787 -12 0
9.999999999999787 -12 -6
0 -9.599999999999993 0
0 -7.199999999999984 0
0 -4.79999999999999 0
0 -2.399999999999995 0
0 0 -3.999999999999993
0 0 -1.999999999999996
0 -9.599999999999993 -6
0 -7.199999999999984 -6
0 -4.79999999999999 -6
0 -2.399999999999995 -6
0 -12 -3.999999999999993
0 -12 -1.999999999999996
1.999999999999958 0 0
3.999999999999915 0 0
5.999999999999871 0 0
7.999999999999827 0 0
9.999999999999787 0 -3.999999999999993
9.999999999999787 0 -1.999999999999996
1.999999999999958 0 -6
3.999999999999915 0 -6
5.999999999999871 0 -6
7.999999999999827 0 -6
9.999999999999895 -2.250000000000091 0
10 -4.500000000000171 -3.999999999999993
10 -4.500000000000171 -1.999999999999996
9.999999999999895 -2.250000000000091 -6
10.2 -4.500000000000171 -3.999999999999993
10.2 -4.500000000000171 -1.999999999999996
10.2 -2.250000000000078 0
10.2 0 -3.999999999999993
10.2 0 -1.999999999999996
10.2 -2.250000000000078 -6
12.16 0 0
14.12 0 0
16.08 0 0
18.04 0 0
20 0 -3.999999999999993
20 0 -1.999999999999996
12.16 0 -6
14.12 0 -6
16.08 0 -6
18.04 0 -6
20 -2.400000000000008 0
20 -4.800000000000016 0
20 -7.20000000000001 0
20 -9.600000000000005 0
20 -12 -3.999999999999993
20 -12 -1.999999999999996
20 -2.400000000000008 -6
20 -4.800000000000016 -6
20 -7.20000000000001 -6
20 -9.600000000000005 -6
18.04 -12 0
16.08000000000001 -12 0
14.12000000000001 -12 0
12.16 -12 0
10.2 -12 -3.999999999999993
10.2 -12 -1.999999999999996
18.04 -12 -6
16.08000000000001 -12 -6
14.12000000000001 -12 -6
12.16 -12 -6
10.2 -9.75 0
10.2 -7.500000000000001 -3.999999999999993
10.2 -7.500000000000001 -1.999999999999996
10.2 -9.75 -6
9.999999999999998 -7.500000000000001 -3.999999999999993
9.999999999999998 -7.500000000000001 -1.999999999999996
9.999999999999893 -9.75 0
9.999999999999787 -12 -3.999999999999993
9.999999999999787 -12 -1.999999999999996
9.999999999999893 -9.75 -6
7.999999999999828 -12 0
5.99999999999987 -12 0
3.999999999999914 -12 0
1.999999999999954 -12 0
7.999999999999828 -12 -6
5.99999999999987 -12 -6
3.999999999999914 -12 -6
1.999999999999954 -12 -6
0 -1.724982288565991 -3.026232086741319
0 -10.27501771143401 -3.02623208674132
0 -5.999999999999989 -1.766527437937436
0 -8.251923788646675 -1.992969128597239
0 -3.748076211353308 -1.992969128597232
0 -3.364559492038448 -4.310812490461189
0 -8.635440507961535 -4.310812490461192
0 -5.999999999999988 -4.056977412926066
0 -1.51429845231142 -4.622841857226292
0 -10.48570154768858 -4.622841857226295
0 -1.574611699983859 -1.40384024306771
0 -10.42538830001614 -1.403840243067711
4.999999999999893 0 -1.668794497782201
1.876400184832097 0 -2.999999999999998
8.123599815167688 0 -2.999999999999997
4.999999999999893 0 -4.331205502217799
3.058491240135385 0 -4.477850647846672
6.941508759864401 0 -4.477850647846672
3.058491240135385 0 -1.522149352153327
6.941508759864402 0 -1.522149352153326
5.994397460517419 0 -3
3.997963354270011 0 -3
8.535898384862037 0 -4.535898384862236
1.464101615137751 0 -4.535898384862236
8.53589838486204 0 -1.464101615137756
1.464101615137749 0 -1.464101615137758
9.999999999999924 -2.872413790415277 -2.95592408560093
9.999999999999844 -1.203335442373084 -2.999999999999994
9.999999999999861 -1.543683603261189 -4.460518567093728
9.999999999999865 -1.616791538798097 -1.492654014266821
9.999999999999934 -3.067336583872328 -4.563691564309068
9.999999999999938 -3.147841065842762 -1.289715619973549
10.2 -1.627586209584893 -2.95592408560093
10.2 -3.296664557627086 -2.999999999999994
10.2 -2.956316396738981 -4.460518567093728
10.2 -2.883208461202073 -1.492654014266821
10.2 -1.432663416127843 -4.563691564309068
10.2 -1.352158934157409 -1.289715619973549
15.1 0 -1.643313954754186
12.01154980882849 0 -2.999999999999997
18.18845019117151 0 -2.999999999999997
15.1 0 -4.356686045245815
17.00337156413466 0 -4.480999143619131
13.19662843586535 0 -4.480999143619132
13.19662843586534 0 -1.519000856380867
17.00337156413466 0 -1.519000856380867
16.08286906750056 0 -3
14.11841578342945 0 -3
11.63253226841116 0 -4.572751916285421
18.56746773158884 0 -4.572751916285421
11.63253226841116 0 -1.427248083714574
18.56746773158885 0 -1.427248083714574
20 -10.27501771143401 -3.026232086741319
20 -1.724982288565993 -3.02623208674132
20 -6.000000000000011 -1.641754025479352
20 -3.748076211353323 -1.992969128597237
20 -8.251923788646691 -1.99296912859723
20 -8.635440507961551 -4.310812490461189
20 -3.364559492038462 -4.31081249046119
20 -6.00000000000001 -3.885025153077818
20 -10.48570154768858 -4.622841857226292
20 -1.514298452311422 -4.622841857226295
20 -10.42538830001614 -1.40384024306771
20 -1.574611699983865 -1.403840243067711
15.10000000000001 -12 -1.643313954754184
12.01154980882849 -12 -2.999999999999997
18.18845019117151 -12 -2.999999999999996
15.10000000000001 -12 -4.356686045245816
13.19662843586535 -12 -4.480999143619132
13.19662843586535 -12 -1.519000856380867
17.00337156413466 -12 -4.480999143619131
17.00337156413466 -12 -1.519000856380867
14.11713093249945 -12 -3
16.08538737532338 -12 -2.999999999999999
18.56746773158885 -12 -4.572751916285421
11.63253226841116 -12 -4.572751916285422
18.56746773158885 -12 -1.427248083714574
11.63253226841115 -12 -1.427248083714574
10.2 -10.37241379041516 -2.955924085600908
10.2 -8.703335442372989 -2.999999999999995
10.2 -9.04368360326114 -4.460518567093704
10.2 -9.116791538798026 -1.492654014266817
10.2 -10.56733658387222 -4.563691564308983
10.2 -10.64784106584264 -1.289715619973545
9.999999999999863 -10.37241379041516 -2.955924085600908
9.999999999999941 -8.703335442372989 -2.999999999999995
9.999999999999925 -9.04368360326114 -4.460518567093704
9.999999999999922 -9.116791538798026 -1.492654014266817
9.999999999999854 -10.56733658387222 -4.563691564308983
9.999999999999851 -10.64784106584264 -1.289715619973545
4.999999999999892 -12 -1.668794497782201
8.123599815167688 -12 -2.999999999999998
1.876400184832096 -12 -2.999999999999998
4.999999999999893 -12 -4.331205502217799
6.941508759864401 -12 -4.477850647846672
3.058491240135384 -12 -4.477850647846672
6.9415087598644 -12 -1.522149352153327
3.058491240135383 -12 -1.522149352153327
5.999046837823332 -12 -3
4.007398111075141 -12 -3
8.535898384862037 -12 -4.535898384862238
1.464101615137751 -12 -4.535898384862235
8.535898384862039 -12 -1.464101615137759
1.464101615137748 -12 -1.46410161513776
2.052453261057839 -5.977766602814947 -6
18.05797969586554 -5.906130912011666 -6
11.79876408340892 -3.263004004014565 -6
15.07494626773072 -1.579840501135332 -6
11.56997758296904 -8.97888218427903 -6
15.22719462841961 -10.43194217747732 -6
8.386889774183741 -3.268832587527029 -6
5.043275985379059 -1.595750196326097 -6
8.636082887881962 -8.986824648487978 -6
4.900064484376431 -10.40711768570134 -6
10.09990688808557 -6.532333110714374 -6
11.13476153532652 -6.886505362871564 -6
9.064441996233565 -6.886137600225233 -6
10.98357368812129 -5.586913724451433 -6
12.19871517545285 -6.178736372646036 -6
9.21541876547488 -5.586087984891774 -6
7.998783048825516 -6.177302558238698 -6
12.10045734964374 -4.765822729520083 -6
13.37220945551582 -5.329811844632739 -6
13.52482903722996 -6.844434901485347 -6
14.81039686478117 -5.937151163586376 -6
14.90168900174326 -7.613852924966576 -6
14.59487977912873 -4.372448122569726 -6
13.56988186900058 -8.534419046987594 -6
8.095600870916982 -4.767067049221205 -6
6.824100159095901 -5.330115853481637 -6
6.671746006174002 -6.84345118555645 -6
5.385109255472753 -5.936065739350781 -6
5.264666114965321 -7.593842939057671 -6
5.605253031847738 -4.377800597175323 -6
6.625720055394576 -8.505936328634219 -6
3.880876461936616 -4.976599124409377 -6
2.089382837378844 -3.525256127369461 -6
17.96557827214412 -3.495578172834382 -6
18.02119321715028 -8.429090974291531 -6
2.061147296187621 -8.422517993743213 -6
13.39053559820791 -10.28631864463633 -6
3.054616836801808 -10.299482237861 -6
3.137501493569215 -1.651897113414773 -6
6.847098314466302 -1.460694559081182 -6
17.01859503925379 -10.37700670694819 -6
16.94865789068201 -1.637529252281955 -6
13.30528411872645 -1.455148447163868 -6
16.26926765897494 -4.922996339290376 -6
6.796972821274414 -10.28164417729415 -6
15.84214082052997 -3.148064409652863 -6
12.24710586730027 -7.800540590421439 -6
7.066128209862723 -3.898522352525798 -6
13.12798073361763 -3.902147848370535 -6
7.951890164787864 -7.797396529416769 -6
4.003751482837036 -8.830406489928802 -6
16.08 -8.892408138125468 -6
4.292561760550711 -3.16552631041035 -6
3.774667312076197 -6.956199814884132 -6
16.3567544064192 -6.950271742045332 -6
6.056693662007619 -2.879959556583546 -6
14.10788173320379 -2.876575941428835 -6
8.453305459764788 -1.626831745098471 -6
11.65243752133347 -10.4535393637221 -6
11.72768448027077 -1.628326461809866 -6
10.09977986833635 -5.341066964011585 -6
8.544872729097602 -10.45065941816448 -6
1.423152826597877 -10.46440004632084 -6
18.59084723256522 -1.506621485023269 -6
11.18704461794667 -4.270489820715896 -6
9.012660410118206 -4.270873000499771 -6
1.445376866189603 -1.515430648156846 -6
18.61595765128082 -10.48121953624795 -6
7.362023084057035 -2.626968160163205 -6
12.81351902984551 -2.625040540557534 -6
5.518234991769556 -9.123789524123238 -6
12.65048508427592 -9.313658021355383 -6
11.07036899711917 -8.183185627514408 -6
9.130483009780656 -8.184071755625995 -6
7.547547945852425 -9.314975141449702 -6
14.77921283201018 -9.03404609784261 -6
2.052453261057841 -5.977766602814945 0
18.05797969586554 -5.906130912011684 0
11.79876408340892 -3.263004004014568 0
15.07494626773074 -1.579840501135339 0
11.56997758296904 -8.978882184279035 0
15.22719462841961 -10.43194217747732 0
8.386889774183745 -3.268832587527028 0
5.043275985379061 -1.595750196326098 0
8.636082887881962 -8.98682464848798 0
4.900064484376432 -10.40711768570134 0
10.09990688808557 -6.532333110714377 0
11.13476153532653 -6.886505362871568 0
9.064441996233565 -6.886137600225233 0
10.98357368812129 -5.586913724451439 0
12.19871517545286 -6.178736372646046 0
9.215418765474883 -5.586087984891775 0
7.998783048825519 -6.177302558238698 0
12.10045734964375 -4.765822729520091 0
13.37220945551583 -5.329811844632755 0
13.52482903722996 -6.844434901485366 0
14.81039686478117 -5.93715116358641 0
14.90168900174324 -7.613852924966602 0
14.59487977912876 -4.372448122569752 0
13.56988186900056 -8.53441904698761 0
8.095600870916986 -4.767067049221204 0
6.824100159095906 -5.330115853481636 0
6.671746006174006 -6.843451185556447 0
5.385109255472758 -5.936065739350778 0
5.264666114965324 -7.59384293905767 0
5.605253031847743 -4.377800597175321 0
6.625720055394582 -8.505936328634215 0
3.880876461936619 -4.976599124409375 0
2.089382837378845 -3.52525612736946 0
17.96557827214413 -3.495578172834394 0
18.02119321715027 -8.429090974291544 0
2.061147296187622 -8.422517993743211 0
13.39053559820791 -10.28631864463634 0
3.054616836801807 -10.29948223786101 0
3.137501493569216 -1.651897113414773 0
6.847098314466305 -1.460694559081182 0
17.01859503925379 -10.3770067069482 0
16.94865789068202 -1.63752925228196 0
13.30528411872646 -1.455148447163875 0
16.26926765897496 -4.922996339290401 0
6.796972821274416 -10.28164417729415 0
15.84214082053 -3.148064409652881 0
12.24710586730026 -7.800540590421452 0
7.066128209862729 -3.898522352525798 0
13.12798073361765 -3.902147848370548 0
7.951890164787866 -7.79739652941677 0
4.003751482837035 -8.8304064899288 0
16.08 -8.892408138125479 0
4.292561760550715 -3.165526310410348 0
3.7746673120762 -6.95619981488413 0
16.3567544064192 -6.950271742045352 0
6.056693662007621 -2.879959556583545 0
14.10788173320381 -2.876575941428847 0
8.45330545976479 -1.626831745098471 0
11.65243752133347 -10.4535393637221 0
11.72768448027077 -1.628326461809868 0
10.09977986833635 -5.341066964011587 0
8.544872729097602 -10.45065941816448 0
1.423152826597877 -10.46440004632084 0
18.59084723256523 -1.506621485023272 0
11.18704461794667 -4.270489820715902 0
9.012660410118208 -4.270873000499768 0
1.445376866189604 -1.515430648156846 0
18.61595765128081 -10.48121953624795 0
7.362023084057038 -2.626968160163205 0
12.81351902984552 -2.625040540557541 0
5.518234991769558 -9.123789524123236 0
12.6504850842759 -9.313658021355417 0
11.07036899711916 -8.18318562751441 0
9.13048300978066 -8.184071755625999 0
7.547547945852422 -9.314975141449704 0
14.77921283201017 -9.034046097842607 0

CELLS 716 2864
3 108 109 111
3 110 107 111
3 106 108 111
3 107 106 111
3 25 26 106
3 24 25 107
3 26 27 108
3 25 106 107
3 106 26 108
3 29 28 104
3 34 35 105
3 30 3 113
3 0 24 115
3 27 1 114
3 2 33 112
3 31 110 111
3 109 32 111
3 31 30 110
3 33 32 109
3 108 104 109
3 105 107 110
3 24 107 115
3 108 27 114
3 32 31 111
3 107 105 115
3 104 108 114
3 28 2 112
3 3 34 113
3 1 29 114
3 35 0 115
3 109 104 112
3 105 110 113
3 33 109 112
3 110 30 113
3 104 28 112
3 29 104 114
3 34 105 113
3 105 35 115
3 120 117 125
3 117 122 125
3 123 118 124
3 118 121 124
3 28 29 117
3 41 40 118
3 37 38 116
3 44 43 119
3 43 42 120
3 45 44 121
3 36 37 122
3 38 39 123
3 119 43 120
3 44 119 121
3 37 116 122
3 116 38 123
3 2 28 127
3 40 5 126
3 5 45 126
3 42 2 127
3 29 1 129
3 1 36 129
3 4 41 128
3 39 4 128
3 36 122 129
3 120 42 127
3 45 121 126
3 123 39 128
3 116 124 125
3 124 119 125
3 28 117 127
3 117 29 129
3 118 40 126
3 41 118 128
3 119 120 125
3 116 123 124
3 122 116 125
3 121 119 124
3 121 118 126
3 118 123 128
3 117 120 127
3 122 117 129
3 41 4 133
3 4 46 133
3 48 47 130
3 7 49 134
3 49 5 132
3 47 7 134
3 5 40 132
3 48 130 135
3 46 6 135
3 40 41 131
3 131 41 133
3 131 130 132
3 130 133 135
3 130 47 134
3 132 130 134
3 6 48 135
3 130 131 133
3 40 131 132
3 49 132 134
3 133 46 135
3 8 48 6
3 47 9 7
3 51 48 8
3 50 9 47
3 48 50 47
3 51 50 48
3 51 8 139
3 8 52 139
3 54 53 136
3 11 55 140
3 55 9 138
3 53 11 140
3 9 50 138
3 54 136 141
3 52 10 141
3 50 51 137
3 137 51 139
3 137 136 138
3 136 139 141
3 136 53 140
3 138 136 140
3 10 54 141
3 136 137 139
3 50 137 138
3 55 138 140
3 139 52 141
3 61 60 144
3 53 54 143
3 57 58 142
3 64 63 145
3 144 146 150
3 147 143 151
3 149 144 150
3 143 148 151
3 63 62 147
3 65 64 146
3 56 57 148
3 58 59 149
3 145 63 147
3 64 145 146
3 57 142 148
3 142 58 149
3 11 53 152
3 60 13 153
3 54 10 154
3 12 61 155
3 62 11 152
3 13 65 153
3 10 56 154
3 59 12 155
3 150 145 151
3 142 150 151
3 144 60 153
3 61 144 155
3 53 143 152
3 143 54 154
3 149 59 155
3 56 148 154
3 147 62 152
3 65 146 153
3 142 149 150
3 145 147 151
3 148 142 151
3 146 145 150
3 143 147 152
3 146 144 153
3 148 143 154
3 144 149 155
3 162 159 163
3 160 161 163
3 159 158 163
3 158 160 163
3 67 68 158
3 66 67 159
3 68 69 160
3 67 158 159
3 158 68 160
3 71 70 156
3 60 61 157
3 12 66 167
3 69 14 166
3 72 13 165
3 15 75 164
3 73 162 163
3 161 74 163
3 73 72 162
3 75 74 161
3 160 156 161
3 157 159 162
3 66 159 167
3 160 69 166
3 74 73 163
3 159 157 167
3 156 160 166
3 70 15 164
3 13 60 165
3 14 71 166
3 61 12 167
3 161 156 164
3 157 162 165
3 75 161 164
3 162 72 165
3 156 70 164
3 71 156 166
3 60 157 165
3 157 61 167
3 70 71 170
3 81 80 169
3 77 78 168
3 84 83 171
3 173 169 176
3 169 172 176
3 174 170 177
3 170 175 177
3 85 84 172
3 78 79 173
3 83 82 174
3 76 77 175
3 84 171 172
3 168 78 173
3 171 83 174
3 77 168 175
3 15 70 178
3 80 17 179
3 71 14 180
3 16 81 181
3 82 15 178
3 17 85 179
3 79 16 181
3 14 76 180
3 176 171 177
3 168 176 177
3 170 71 180
3 169 80 179
3 70 170 178
3 81 169 181
3 173 79 181
3 85 172 179
3 76 175 180
3 174 82 178
3 172 171 176
3 168 173 176
3 175 168 177
3 171 174 177
3 172 169 179
3 169 173 181
3 170 174 178
3 175 170 180
3 18 88 185
3 86 18 185
3 80 81 182
3 89 17 186
3 19 89 184
3 17 80 186
3 87 19 184
3 182 81 187
3 16 86 187
3 88 87 183
3 88 183 185
3 182 183 184
3 185 182 187
3 80 182 186
3 182 184 186
3 81 16 187
3 183 182 185
3 183 87 184
3 184 89 186
3 86 185 187
3 20 88 18
3 87 21 19
3 20 91 88
3 90 21 87
3 88 90 87
3 91 90 88
3 91 20 191
3 20 92 191
3 94 93 188
3 23 95 192
3 95 21 190
3 93 23 192
3 21 90 190
3 94 188 193
3 92 22 193
3 90 91 189
3 189 91 191
3 189 188 190
3 188 191 193
3 188 93 192
3 190 188 192
3 22 94 193
3 188 189 191
3 90 189 190
3 95 190 192
3 191 92 193
3 196 199 203
3 198 195 202
3 195 200 202
3 201 196 203
3 35 34 196
3 93 94 195
3 97 98 194
3 102 101 197
3 103 102 199
3 98 99 201
3 101 100 198
3 96 97 200
3 197 101 198
3 102 197 199
3 97 194 200
3 194 98 201
3 34 3 205
3 23 93 204
3 3 103 205
3 100 23 204
3 0 35 207
3 99 0 207
3 22 96 206
3 94 22 206
3 103 199 205
3 96 200 206
3 201 99 207
3 198 100 204
3 202 194 203
3 197 202 203
3 93 195 204
3 196 34 205
3 195 94 206
3 35 196 207
3 199 197 203
3 197 198 202
3 194 201 203
3 200 194 202
3 195 198 204
3 200 195 206
3 199 196 205
3 196 201 207
3 55 210 272
3 214 49 273
3 258 243 261
3 242 259 262
3 243 208 261
3 239 208 240
3 238 252 278
3 221 9 272
3 7 223 273
3 239 240 260
3 212 89 280
3 95 216 281
3 212 254 279
3 240 246 260
3 257 216 282
3 241 209 251
3 73 209 241
3 31 208 243
3 252 217 278
3 9 221 268
3 223 7 268
3 259 229 262
3 63 211 250
3 209 242 262
3 215 44 247
3 254 231 279
3 209 74 242
3 208 32 240
3 238 257 282
3 225 210 256
3 236 258 261
3 62 63 250
3 73 74 209
3 244 231 283
3 214 232 255
3 101 217 252
3 31 32 208
3 72 73 241
3 30 31 243
3 44 45 247
3 101 102 217
3 43 44 215
3 43 215 246
3 83 84 213
3 63 64 211
3 74 75 242
3 32 33 240
3 83 213 248
3 241 251 253
3 249 241 253
3 213 84 244
3 227 231 254
3 238 234 257
3 84 85 244
3 210 267 277
3 217 102 245
3 211 64 249
3 248 242 275
3 246 215 260
3 213 244 283
3 42 43 246
3 227 229 231
3 236 234 238
3 242 248 259
3 82 83 248
3 100 101 252
3 252 238 282
3 208 239 261
3 102 103 245
3 64 65 249
3 225 221 272
3 246 240 274
3 223 232 273
3 250 211 264
3 210 225 272
3 211 249 253
3 17 89 266
3 232 214 273
3 231 244 279
3 245 243 258
3 242 75 275
3 5 49 265
3 265 214 276
3 216 269 282
3 13 72 271
3 241 249 271
3 3 30 270
3 85 17 266
3 240 33 274
3 75 15 275
3 55 11 267
3 33 2 274
3 45 5 265
3 266 212 279
3 72 241 271
3 95 23 269
3 226 225 256
3 228 226 230
3 233 235 237
3 243 245 270
3 248 213 259
3 232 233 255
3 223 224 232
3 222 221 225
3 30 243 270
3 215 247 263
3 217 245 258
3 210 55 267
3 11 62 267
3 230 226 256
3 233 224 234
3 222 226 227
3 227 228 229
3 235 234 236
3 233 237 255
3 23 100 269
3 103 3 270
3 216 95 269
3 237 235 239
3 49 214 265
3 228 230 251
3 89 212 266
3 65 13 271
3 232 224 233
3 219 218 221
3 222 225 226
3 233 234 235
3 218 220 223
3 227 226 228
3 253 230 264
3 251 230 253
3 2 42 274
3 223 220 224
3 219 221 222
3 15 82 275
3 222 227 254
3 234 224 257
3 251 209 262
3 247 45 265
3 219 222 254
3 224 220 257
3 211 253 264
3 237 239 260
3 62 250 267
3 237 260 263
3 244 85 266
3 235 236 261
3 229 228 262
3 239 235 261
3 214 255 276
3 256 210 277
3 260 215 263
3 228 251 262
3 221 218 268
3 218 223 268
3 19 218 219
3 218 21 220
3 230 256 264
3 255 237 263
3 219 254 280
3 257 220 281
3 100 252 269
3 231 229 283
3 245 103 270
3 267 250 277
3 249 65 271
3 42 246 274
3 264 256 277
3 82 248 275
3 250 264 277
3 254 212 280
3 236 238 278
3 216 257 281
3 255 263 276
3 247 265 276
3 229 259 283
3 258 236 278
3 217 258 278
3 263 247 276
3 259 213 283
3 244 266 279
3 269 252 282
3 19 219 280
3 220 21 281
3 19 21 218
3 7 9 268
3 49 7 273
3 9 55 272
3 89 19 280
3 21 95 281
3 52 348 286
3 290 349 46
3 334 337 319
3 318 338 335
3 319 337 284
3 315 316 284
3 314 354 328
3 297 348 8
3 6 349 299
3 315 336 316
3 288 356 86
3 92 357 292
3 288 355 330
3 316 336 322
3 333 358 292
3 317 327 285
3 67 317 285
3 25 319 284
3 328 354 293
3 8 344 297
3 299 344 6
3 335 338 305
3 57 326 287
3 285 338 318
3 291 323 38
3 330 355 307
3 285 318 68
3 284 316 26
3 314 358 333
3 301 332 286
3 312 337 334
3 56 326 57
3 67 285 68
3 320 359 307
3 290 331 308
3 97 328 293
3 25 284 26
3 66 317 67
3 24 319 25
3 38 323 39
3 97 293 98
3 37 291 38
3 37 322 291
3 77 289 78
3 57 287 58
3 68 318 69
3 26 316 27
3 77 324 289
3 317 329 327
3 325 329 317
3 289 320 78
3 303 330 307
3 314 333 310
3 78 320 79
3 286 353 343
3 293 321 98
3 287 325 58
3 324 351 318
3 322 336 291
3 289 359 320
3 36 322 37
3 303 307 305
3 312 314 310
3 318 335 324
3 76 324 77
3 96 328 97
3 328 358 314
3 284 337 315
3 98 321 99
3 58 325 59
3 301 348 297
3 322 350 316
3 299 349 308
3 326 340 287
3 286 348 301
3 287 329 325
3 16 342 86
3 308 349 290
3 307 355 320
3 321 334 319
3 318 351 69
3 4 341 46
3 341 352 290
3 292 358 345
3 12 347 66
3 317 347 325
3 0 346 24
3 79 342 16
3 316 350 27
3 69 351 14
3 52 343 10
3 27 350 1
3 39 341 4
3 342 355 288
3 66 347 317
3 92 345 22
3 302 332 301
3 304 306 302
3 309 313 311
3 319 346 321
3 324 335 289
3 308 331 309
3 299 308 300
3 298 301 297
3 24 346 319
3 291 339 323
3 293 334 321
3 286 343 52
3 10 343 56
3 306 332 302
3 309 310 300
3 298 303 302
3 303 305 304
3 311 312 310
3 309 331 313
3 22 345 96
3 99 346 0
3 292 345 92
3 313 315 311
3 46 341 290
3 304 327 306
3 86 342 288
3 59 347 12
3 308 309 300
3 295 297 294
3 298 302 301
3 309 311 310
3 294 299 296
3 303 304 302
3 329 340 306
3 327 329 306
3 1 350 36
3 299 300 296
3 295 298 297
3 14 351 76
3 298 330 303
3 310 333 300
3 327 338 285
3 323 341 39
3 295 330 298
3 300 333 296
3 287 340 329
3 313 336 315
3 56 343 326
3 313 339 336
3 320 342 79
3 311 337 312
3 305 338 304
3 315 337 311
3 290 352 331
3 332 353 286
3 336 339 291
3 304 338 327
3 297 344 294
3 294 344 299
3 18 295 294
3 294 296 20
3 306 340 332
3 331 339 313
3 295 356 330
3 333 357 296
3 96 345 328
3 307 359 305
3 321 346 99
3 343 353 326
3 325 347 59
3 36 350 322
3 340 353 332
3 76 351 324
3 326 353 340
3 330 356 288
3 312 354 314
3 292 357 333
3 331 352 339
3 323 352 341
3 305 359 335
3 334 354 312
3 293 354 334
3 339 352 323
3 335 359 289
3 320 355 342
3 345 358 328
3 18 356 295
3 296 357 20
3 18 294 20
3 6 344 8
3 46 349 6
3 8 348 52
3 86 356 18
3 20 357 92

CELL_TYPES 716
5
5
5
5
5
5
5
5
5
5
5
5
5
5
5
5
5
5
5
5
5
5
5
5
5
5
5
5
5
5
5
5
5
5
5
5
5
5
5
5
5
5
5
5
5
5
5
5
5
5
5
5
5
5
5
5
5
5
5
5
5
5
5
5
5
5
5
5
5
5
5
5
5
5
5
5
5
5
5
5
5
5
5
5
5
5
5
5
5
5
5
5
5
5
5
5
5
5
5
5
5
5
5
5
5
5
5
5
5
5
5
5
5
5
5
5
5
5
5
5
5
5
5
5
5
5
5
5
5
5
5
5
5
5
5
5
5
5
5
5
5
5
5
5
5
5
5
5
5
5
5
5
5
5
5
5
5
5
5
5
5
5
5
5
5
5
5
5
5
5
5
5
5
5
5
5
5
5
5
5
5
5
5
5
5
5
5
5
5
5
5
5
5
5
5
5
5
5
5
5
5
5
5
5
5
5
5
5
5
5
5
5
5
5
5
5
5
5
5
5
5
5
5
5
5
5
5
5
5
5
5
5
5
5
5
5
5
5
5
5
5
5
5
5
5
5
5
5
5
5
5
5
5
5
5
5
5
5
5
5
5
5
5
5
5
5
5
5
5
5
5
5
5
5
5
5
5
5
5
5
5
5
5
5
5
5
5
5
5
5
5
5
5
5
5
5
5
5
5
5
5
5
5
5
5
5
5
5
5
5
5
5
5
5
5
5
5
5
5
5
5
5
5
5
5
5
5
5
5
5
5
5
5
5
5
5
5
5
5
5
5
5
5
5
5
5
5
5
5
5
5
5
5
5
5
5
5
5
5
5
5
5
5
5
5
5
5
5
5
5
5
5
5
5
5
5
5
5
5
5
5
5
5
5
5
5
5
5
5
5
5
5
5
5
5
5
5
5
5
5
5
5
5
5
5
5
5
5
5
5
5
5
5
5
5
5
5
5
5
5
5
5
5
5
5
5
5
5
5
5
5
5
5
5
5
5
5
5
5
5
5
5
5
5
5
5
5
5
5
5
5
5
5
5
5
5
5
5
5
5
5
5
5
5
5
5
5
5
5
5
5
5
5
5
5
5
5
5
5
5
5
5
5
5
5
5
5
5
5
5
5
5
5
5
5
5
5
5
5
5
5
5
5
5
5
5
5
5
5
5
5
5
5
5
5
5
5
5
5
5
5
5
5
5
5
5
5
5
5
5
5
5
5
5
5
5
5
5
5
5
5
5
5
5
5
5
5
5
5
5
5
5
5
5
5
5
5
5
5
5
5
5
5
5
5
5
5
5
5
5
5
5
5
5
5
5
5
5
5
5
5
5
5
5
5
5
5
5
5
5
5
5
5
5
5
5
5
5
5
5
5
5
5
5
5
5
5
5
5
5
5
5
5
5
5
5
5
5
5
5
5
5
5
5
5
5
5
5
5
5
5
5
5
5
5
5
5
5
5
5
5
5
5
5
5
5
5
5
5
5
5
5
5
5
5
5
5
5
5
5
5
5
5
5
5
5
5
5
5
5
5
5
5
5
5
5
5
5
5
5
5
5
5
5
5
5
5
5
5
5
5
5
5
5
5
5
5
5
5
5
5
5
5
5
5
5
5
5
5
5
5
5
5
5
5
5

CELL_DATA 716
SCALARS CellEntityIds int 1
LOOKUP_TABLE default
37
37
37
37
37
37
37
37
37
37
37
37
37
37
37
37
37
37
37
37
37
37
37
37
37
37
37
37
37
37
37
37
37
37
37
37
37
37
37
37
37
37
37
37
37
37
37
37
37
37
37
37
37
37
37
37
37
37
37
37
37
37
37
37
37
37
37
37
37
37
37
37
37
37
37
37
37
37
37
37
40
40
40
40
40
40
40
40
40
40
40
40
40
40
40
40
40
40
40
40
40
40
40
40
40
40
40
40
40
40
40
40
40
40
40
40
40
40
40
40
40
40
40
40
40
40
37
37
37
37
37
37
37
37
37
37
37
37
37
37
37
37
37
37
37
37
37
37
37
37
37
37
37
37
37
37
37
37
37
37
37
37
37
37
37
37
37
37
37
37
37
37
37
37
37
37
37
37
37
37
37
37
37
37
37
37
37
37
37
37
37
37
37
37
37
37
37
37
37
37
37
37
37
37
37
37
37
37
37
37
37
37
37
37
37
37
37
37
37
37
37
37
37
37
37
37
37
37
37
37
37
37
37
37
37
37
37
37
37
37
37
37
37
37
37
37
37
37
40
40
40
40
40
40
40
40
40
40
40
40
40
40
40
40
40
40
40
40
40
40
40
40
40
40
40
40
40
40
40
40
40
40
40
40
40
40
40
40
40
40
40
40
40
40
37
37
37
37
37
37
37
37
37
37
37
37
37
37
37
37
37
37
37
37
37
37
37
37
37
37
37
37
37
37
37
37
37
37
37
37
37
37
37
37
37
37
38
38
38
38
38
38
38
38
38
38
38
38
38
38
38
38
38
38
38
38
38
38
38
38
38
38
38
38
38
38
38
38
38
38
38
38
38
38
38
38
38
38
38
38
38
38
38
38
38
38
38
38
38
38
38
38
38
38
38
38
38
38
38
38
38
38
38
38
38
38
38
38
38
38
38
38
38
38
38
38
38
38
38
38
38
38
38
38
38
38
38
38
38
38
38
38
38
38
38
38
38
38
38
38
38
38
38
38
38
38
38
38
38
38
38
38
38
38
38
38
38
38
38
38
38
38
38
38
38
38
38
38
38
38
38
38
38
38
38
38
38
38
38
38
38
38
38
38
38
38
38
38
38
38
38
38
38
38
38
38
38
38
38
38
38
38
38
38
38
38
38
38
38
38
38
38
38
38
38
38
38
38
38
38
38
38
38
38
38
38
39
39
39
39
39
39
39
39
39
39
39
39
39
39
39
39
39
39
39
39
39
39
39
39
39
39
39
39
39
39
39
39
39
39
39
39
39
39
39
39
39
39
39
39
39
39
39
39
39
39
39
39
39
39
39
39
39
39
39
39
39
39
39
39
39
39
39
39
39
39
39
39
39
39
39
39
39
39
39
39
39
39
39
39
39
39
39
39
39
39
39
39
39
39
39
39
39
39
39
39
39
39
39
39
39
39
39
39
39
39
39
39
39
39
39
39
39
39
39
39
39
39
39
39
39
39
39
39
39
39
39
39
39
39
39
39
39
39
39
39
39
39
39
39
39
39
39
39
39
39
39
39
39
39
39
39
39
39
39
39
39
39
39
39
39
39
39
39
39
39
39
39
39
39
39
39
39
39
39
39
39
39
39
39
39
39
39
39
39
39
