# vtk DataFile Version 2.0
SHAPE_BASE, Created by Gmsh 4.11.1 
ASCII
DATASET UNSTRUCTURED_GRID
POINTS 389 double
0 0 0
6 0 0
6 4 0
0 4 0
0 4 3
0 0 3
6 0 3
6 4 3
0 3.42857142857143 3
0 2.857142857142859 3
0 2.285714285714289 3
0 1.71428571428572 3
0 1.142857142857147 3
0 0.5714285714285738 3
0 0 2.4
0 0 1.8
0 0 1.2
0 0 0.6000000000000001
0 0.5714285714285704 0
0 1.142857142857142 0
0 1.714285714285711 0
0 2.28571428571428 0
0 2.857142857142853 0
0 3.428571428571426 0
0 4 0.6
0 4 1.2
0 4 1.8
0 4 2.4
0.6 4 3
1.2 4 3
1.8 4 3
2.4 4 3
3 4 3
3.6 4 3
4.2 4 3
4.8 4 3
5.4 4 3
6 4 2.4
6 4 1.8
6 4 1.2
6 4 0.6000000000000001
5.4 4 0
4.8 4 0
4.2 4 0
3.6 4 0
3 4 0
2.4 4 0
1.8 4 0
1.2 4 0
0.5999999999999996 4 0
0.6 0 0
1.2 0 0
1.8 0 0
2.4 0 0
3 0 0
3.6 0 0
4.2 0 0
4.8 0 0
5.4 0 0
6 0 0.6
6 0 1.2
6 0 1.8
6 0 2.4
5.4 0 3
4.8 0 3
4.2 0 3
3.6 0 3
3 0 3
2.4 0 3
1.8 0 3
1.2 0 3
0.5999999999999996 0 3
6 0.5714285714285704 3
6 1.142857142857142 3
6 1.714285714285711 3
6 2.28571428571428 3
6 2.857142857142853 3
6 3.428571428571426 3
6 3.42857142857143 0
6 2.857142857142859 0
6 2.285714285714289 0
6 1.71428571428572 0
6 1.142857142857147 0
6 0.5714285714285738 0
0 2.008577197655752 2.472913123951833
0 1.414574411459902 0.4702317635963158
0 2.587405040647491 0.4816999947205916
0 0.5136871967923948 1.492210776048729
0 3.507035625844333 1.536650412500054
0 3.089075571786403 2.480590602715284
0 0.8652653413229274 2.56847508238132
0 0.5705516719383001 0.886807809397624
0 1.061348237299722 1.240641424701185
0 1.046753101007703 1.759291857886044
0 1.547095122978345 1.50635161007439
0 1.533418091039425 2.047443889220368
0 2.033782618582874 1.779788714639811
0 2.014256482407995 1.196509125733663
0 2.552523091690614 1.469906785450693
0 2.534738817995903 2.127545148658474
0 3.002813637654133 1.840965428825484
0 3.444219816478918 0.9477805330914459
0 1.998353714382564 0.5794744000434159
0 0.5677912112356438 2.113068805699423
0 3.530970178866472 2.106147188868431
0 3.123616889027264 0.4837632935774399
0 2.858469682706174 0.96103400038162
0 0.878423310479884 0.4316427635771038
0 1.414005441596333 2.559946114411339
0 1.550674276670789 0.974730865207043
0 2.559729410450336 2.620077607662826
0 2.402201602366968 0.9377248612659966
0 0.4192625986949494 0.4196295676444701
0 3.576483011694177 0.4312406691347972
0 0.4086552426659911 2.592391007116694
0 3.586896237913965 2.578676689169762
0 3.044850448535727 1.394907795185601
0 1.085446637240406 2.209645149919699
0 1.095114381569719 0.8008109252958544
5.452111685221987 1.9709509971194 3
0.5647640009544399 1.968756639592993 3
2.7 3.480384757729337 3
3.301102456830034 0.5136448277976047 3
3.901183539523433 3.481314654642786 3
2.100744375155335 0.5132312313436491 3
4.498241150117097 0.509982964321499 3
1.512029623234184 3.480251538200461 3
5.06833934220113 3.498415886518635 3
0.9028286554473466 0.4602985121368997 3
0.4323916850264897 3.131779162425548 3
5.483718191309188 0.8805105609653745 3
4.493781473907751 3.485887290810417 3
4.200243403633519 2.965694781149365 3
3.604604424350697 2.963436108718959 3
3.905617460406031 2.449216190722103 3
3.307979412366489 2.446741904613501 3
3.607764722422989 1.931699342332518 3
3.011288719869782 1.929428929199271 3
4.204593726425118 1.934348817603322 3
2.711296564880651 2.444528437916464 3
2.414895318851173 1.928122570226304 3
2.115503198243966 2.442083487489884 3
1.820179663072045 1.928026172732032 3
1.522927099125194 2.438910955148669 3
3.907696362205662 1.418168054149096 3
2.713008006571241 1.424268056639418 3
4.501775004879287 1.419805928590511 3
1.216507299829282 1.934508618760867 3
1.52283177778082 1.417368743408139 3
0.9191380336596664 1.424140161424275 3
4.810243537842783 1.94528574532714 3
5.090688037519177 1.423687664160883 3
5.085305282225059 2.476360106816846 3
0.9612109014376724 2.450957167582787 3
1.813831224352313 2.957931038243832 3
4.50252231052211 2.456037029034015 3
1.508221189264759 0.4867796737780918 3
2.116714820538406 1.422398860220767 3
1.258366965699008 2.945781096445369 3
3.302330556839241 3.481066225108883 3
3.901545640243479 0.5066571199735752 3
2.106031994369827 3.479629117396342 3
2.700682900188526 0.5056367617340078 3
3.311129971486938 1.420661650860703 3
4.785351074344765 2.976317751482821 3
2.409898152598285 2.959849647118387 3
3.00601818517256 2.962667846867588 3
5.440069160685416 3.048889754228274 3
5.093308302450959 0.4621489179563083 3
0.9026300136130758 3.448114305763748 3
0.5129782578794826 0.887251395252006 3
4.812283903557641 0.9444046895456637 3
4.205733741374868 0.9617337997653435 3
0.4470655361162632 2.580979305181756 3
1.197208902249079 0.9413474634522427 3
1.807603852517734 0.9569520757284649 3
3.606845990654396 0.9651811778683903 3
2.404426661176559 0.9630686001375359 3
3.006199331151282 0.9654101791729435 3
0.3993760584987176 1.427458210682429 3
5.60530358281007 1.426458415877702 3
5.585219595022838 2.54205226222529 3
5.556268831004125 3.563367986840045 3
0.4088163971632097 3.592288636397267 3
5.578676689169763 0.4131037620860345 3
0.4192162250008815 0.4108913219652119 3
0.8019689352397044 2.892955275357142 3
4.495096189432334 4 2.483215974080634
0.4910966848910601 4 1.524099905916908
2.1 4 2.480384757729337
3.307983833955357 4 2.494801847547959
3.892016166044643 4 0.505198152452041
2.7 4 0.5196152422706634
1.504903810567666 4 0.5167840259193661
5.50890331510894 4 1.475900094083092
5.058344723197251 4 0.5757061638698935
0.9416552768027486 4 2.424293836130107
3.908497171186639 4 2.487868944107614
4.208582727391853 4 1.967098217930227
4.803981913965282 4 2.019078472028379
4.54744097215518 4 1.453574369840215
3.90476392002951 4 1.467768000499551
4.465703329313973 4 0.5004360401607116
2.100817301761277 4 0.5191433728787803
1.80095351872149 4 1.038679970250796
1.197607460386942 4 0.9818845593351251
1.454148402197043 4 1.547388661523289
2.092516986819755 4 1.537229221278121
2.399047967883754 4 1.035457336338613
2.699282734243495 4 1.54667896598201
2.991737949732517 4 1.031964364352587
3.29929743400092 4 1.511004428850802
0.555411173361124 4 0.9328788349818327
1.532966031693467 4 2.497161111536185
5.444751007695225 4 2.067219433524647
2.70048492674656 4 2.488408843215404
3.28930851867417 4 0.5113919052528124
5.522404993034648 4 0.915197355408764
5.084099771091919 4 2.521713899182056
0.9161921548095098 4 0.4784629841296084
0.4775950069653518 4 2.084802644591236
0.9418976019283498 4 1.835604595019043
5.05836729379702 4 1.164555910208207
3.58359009280055 4 1.004224812261539
3.604854181094047 4 1.991359446867803
4.172895594497633 4 0.9787547570211759
1.82262872234472 4 2.0234086379041
2.4 4 2.019615242270664
3 4 2.019615242270664
5.560769515458674 4 0.4392304845413262
5.560769515458674 4 2.560769515458674
0.439230484541326 4 0.4392304845413264
0.439230484541326 4 2.560769515458674
4.643859086641942 4 0.9413271669129972
1.356140913358056 4 2.058672833087004
5.069250672644163 4 1.625630311134283
0.9307493273558376 4 1.374369688865717
6 2.008577197655752 0.5270868760481673
6 1.414574411459902 2.529768236403684
6 2.587405040647491 2.518300005279408
6 0.5136871967923948 1.507789223951271
6 3.507035625844333 1.463349587499945
6 3.089075571786403 0.5194093972847161
6 0.8652653413229274 0.4315249176186797
6 0.5705516719383001 2.113192190602376
6 1.061348237299722 1.759358575298815
6 1.046753101007703 1.240708142113956
6 1.547095122978345 1.49364838992561
6 1.533418091039425 0.9525561107796323
6 2.033782618582875 1.220211285360188
6 2.014256482407996 1.803490874266336
6 2.552523091690614 1.530093214549306
6 2.534738817995903 0.8724548513415253
6 3.002813637654133 1.159034571174515
6 3.444219816478918 2.052219466908554
6 1.998353714382564 2.420525599956584
6 0.5677912112356438 0.8869311943005769
6 3.530970178866472 0.8938528111315692
6 3.123616889027264 2.51623670642256
6 2.858469682706174 2.03896599961838
6 0.8784233104798842 2.568357236422896
6 1.414005441596333 0.4400538855886613
6 1.550674276670789 2.025269134792957
6 2.559729410450336 0.3799223923371737
6 2.402201602366968 2.062275138734003
6 0.4192625986949494 2.58037043235553
6 3.576483011694177 2.568759330865203
6 0.4086552426659911 0.4076089928833055
6 3.586896237913965 0.4213233108302381
6 3.044850448535727 1.605092204814398
6 1.085446637240406 0.7903548500803014
6 1.09511438156972 2.199189074704146
5.45619161054174 1.972516226043327 0
0.5646173703245498 1.965100532726336 0
2.703491529893669 3.477765298950744 0
3.302028443232958 0.5138099496477975 0
3.90282103107229 3.480688975453155 0
2.102248392762842 0.506555048537852 0
1.513235356497871 3.476855073466018 0
4.499075267184047 0.5017077456850871 0
0.9046033771352846 0.45989942956015 0
5.070998299579835 3.499186925104163 0
0.4313742318251252 3.132161407295055 0
5.476911762335092 0.8904854418374775 0
4.49586724861951 3.486252957988901 0
4.204617177442318 2.96740281280182 0
3.607259124095236 2.961849448815145 0
3.910790976357565 2.448803885918999 0
3.312780846621935 2.443728849054152 0
3.61461265266445 1.929911603677617 0
3.018172463113309 1.925249565562664 0
4.211596760071163 1.934946400990265 0
2.71637435397356 2.43922476926216 0
2.420975586738123 1.921805571789168 0
2.120495438979047 2.434516392838432 0
1.826097249322308 1.919373444514596 0
1.524372888032034 2.431686444982267 0
3.91657160419362 1.417608783722883 0
2.719274219384841 1.424845463442648 0
4.510600005015966 1.421611289892996 0
1.21828438074483 1.927174059547033 0
1.53177515618656 1.407136719867498 0
0.918514487969567 1.420258226720689 0
4.816774454391842 1.947175096334968 0
5.099416296280308 1.42785224290543 0
5.090497655784812 2.478202689083632 0
0.9611146079199564 2.447441038536887 0
1.816554712931364 2.952043250838518 0
4.508106302284567 2.457357670331919 0
1.51209055533072 0.4848601689853798 0
2.121020971966346 1.425726558744857 0
1.25947285397521 2.942825859422868 0
2.107978506908725 3.476692656360554 0
3.304087739450333 3.47949891634713 0
3.906863883844948 0.4938985734900472 0
2.703046786152326 0.4992089918983551 0
2.413198089933077 2.955394487963506 0
3.319848851334989 1.421503232090798 0
4.789734191806852 2.977670960307613 0
3.010436236949538 2.95774195666709 0
5.442286580438809 3.049783599571934 0
0.9029005014461244 3.447739204981056 0
5.094075324305686 0.4631736663693697 0
0.5142073149336799 0.8867648418452367 0
4.816111149328975 0.9464727520938827 0
4.212118876894582 0.9591944607698935 0
0.3994678346455593 1.425853291687023 0
3.613668680487572 0.9629265048768161 0
0.45064185676772 2.584264298465645 0
2.41611923668763 0.9663465198273329 0
1.826544626435084 0.9701990268008092 0
1.201289252998483 0.9381864022966271 0
3.012331036213386 0.9647734436306248 0
5.606503933831428 1.42959935358582 0
5.58850708489604 2.544342349953799 0
5.556268831004125 3.563367986840046 0
5.578676689169761 0.4131037620860374 0
0.4087619536232459 3.592289157103301 0
0.4192162250008802 0.4108913219652086 0
0.8011008103868269 2.910886361740302 0
4.5 0 0.5196152422706628
1.5 0 2.480384757729337
2.7 0 2.480384757729337
3.892016166044643 0 2.494801847547959
2.1 0 0.519615242270663
3.307983833955357 0 0.5051981524520408
0.437187848496837 0 1.5
5.511734531460236 0 1.529003716484574
5.058344723197251 0 2.424293836130107
0.9025424215685263 0 0.5080632270334992
3.909314472947917 0 0.5126029252842688
4.209536246113343 0 1.033452296360303
4.812693162432437 0 0.9892201766642212
4.54882165318213 0 1.547689796300232
3.904962406402677 0 1.532386309060907
4.465703329313973 0 2.499563959839288
2.1 0 2.480384757729337
2.399999999999999 0 1.960769515458674
2.992016166044642 0 1.965378984141964
2.699999999999999 0 1.44115427318801
2.099999999999999 0 1.441154273188011
3.299640306243728 0 1.473580307115648
0.9025424215685263 0 2.491936772966501
1.211483656012388 0 1.995413211339379
1.500423736928088 0 0.5078651327259336
1.211554278833736 0 0.9824073584938828
5.09873467364849 0 0.509194120570426
2.700484926746559 0 0.5115911567845965
1.809897776624088 0 1.971152933455416
3.289354888059524 0 2.48816531949628
5.52287686242653 0 2.085619946352514
5.436168936520572 0 0.9487168838751806
0.5381926665324905 0 0.9457305183787896
0.5524113490699918 0 2.045483212472221
5.059147921592041 0 1.836608302870024
3.617429104121448 0 1.007783519269321
3.583693181409294 0 1.993589428068288
1.547903003732142 0 1.468811085287756
4.173175970499109 0 2.02111736231728
2.399999999999999 0 0.9803847577293373
3.004256361844515 0 0.9866153610898257
1.8 0 0.9802818425101131
0.9651280056424865 0 1.494714743705104
0.439230484541326 0 2.560769515458674
5.560769515458674 0 0.4392304845413264
0.439230484541326 0 0.439230484541326
5.560769515458674 0 2.560769515458674
4.643859086641942 0 2.058672833087003
5.073713241037483 0 1.370247775238846

CELLS 774 3096
3 99 100 89
3 96 99 84
3 95 96 84
3 97 109 102
3 98 99 96
3 89 110 99
3 102 111 97
3 98 100 99
3 100 104 89
3 102 109 85
3 101 116 106
3 84 108 95
3 91 92 87
3 16 91 87
3 92 93 87
3 92 94 93
3 88 101 25
3 101 106 105
3 17 91 16
3 16 87 15
3 26 88 25
3 94 95 93
3 25 101 24
3 94 96 95
3 94 97 96
3 22 86 21
3 86 102 21
3 20 85 19
3 20 102 85
3 11 84 10
3 21 102 20
3 93 103 87
3 97 98 96
3 9 89 8
3 13 90 12
3 88 116 101
3 93 117 103
3 15 103 14
3 99 110 84
3 23 105 22
3 19 107 18
3 88 104 100
3 26 104 88
3 103 117 90
3 27 104 26
3 105 106 86
3 87 103 15
3 91 118 92
3 22 105 86
3 92 109 94
3 85 107 19
3 11 108 84
3 90 108 12
3 0 112 17
3 24 113 3
3 18 112 0
3 3 113 23
3 98 111 106
3 84 110 10
3 107 118 91
3 86 111 102
3 9 110 89
3 14 114 5
3 4 115 27
3 97 111 98
3 5 114 13
3 8 115 4
3 12 108 11
3 94 109 97
3 106 116 98
3 103 114 14
3 98 116 100
3 10 110 9
3 101 113 24
3 17 112 91
3 90 114 103
3 27 115 104
3 106 111 86
3 92 118 109
3 90 117 108
3 104 115 89
3 100 116 88
3 107 112 18
3 23 113 105
3 89 115 8
3 13 114 90
3 95 117 93
3 105 113 101
3 91 112 107
3 85 118 107
3 108 117 95
3 109 118 85
3 76 167 77
3 147 149 120
3 149 174 170
3 167 182 77
3 119 151 150
3 130 171 151
3 170 174 128
3 120 153 147
3 150 152 119
3 149 179 120
3 170 179 149
3 168 171 130
3 119 180 151
3 151 180 130
3 150 155 152
3 154 158 126
3 134 155 138
3 158 169 126
3 158 186 169
3 126 161 154
3 138 155 150
3 132 155 134
3 127 131 35
3 128 156 70
3 121 165 161
3 161 165 154
3 150 151 146
3 142 147 143
3 138 150 146
3 127 164 131
3 32 159 121
3 147 153 143
3 142 143 141
3 36 127 35
3 71 128 70
3 65 160 125
3 159 166 121
3 155 164 152
3 131 132 123
3 69 156 124
3 34 131 123
3 132 164 155
3 140 142 141
3 33 159 32
3 30 126 29
3 65 125 64
3 138 146 144
3 121 161 31
3 70 156 69
3 35 131 34
3 134 138 136
3 142 157 148
3 30 161 126
3 140 157 142
3 34 123 33
3 69 124 68
3 148 149 147
3 67 162 122
3 121 166 165
3 124 162 68
3 66 160 65
3 122 160 66
3 142 148 147
3 123 159 33
3 140 141 139
3 138 144 136
3 137 140 139
3 131 164 132
3 145 157 140
3 31 161 30
3 68 162 67
3 132 133 123
3 153 158 143
3 32 121 31
3 67 122 66
3 136 163 137
3 132 134 133
3 137 139 135
3 137 145 140
3 143 154 141
3 136 137 135
3 137 163 145
3 134 136 135
3 144 163 136
3 134 135 133
3 143 158 154
3 165 166 139
3 135 166 133
3 141 165 139
3 139 166 135
3 133 159 123
3 133 166 159
3 154 165 141
3 169 186 129
3 72 130 73
3 8 129 9
3 10 120 11
3 74 119 75
3 120 173 153
3 64 168 63
3 29 169 28
3 76 181 167
3 127 167 164
3 164 167 152
3 77 182 7
3 7 182 36
3 125 168 64
3 126 169 29
3 12 170 13
3 129 173 9
3 10 173 120
3 120 179 11
3 152 181 119
3 130 180 73
3 74 180 119
3 128 174 156
3 127 182 167
3 145 178 177
3 177 178 162
3 28 183 4
3 63 184 6
3 151 171 146
3 156 175 124
3 5 185 71
3 4 183 8
3 6 184 72
3 12 179 170
3 160 172 125
3 171 172 146
3 145 177 157
3 13 185 5
3 174 175 156
3 122 176 160
3 125 172 171
3 162 178 122
3 146 172 144
3 122 178 176
3 157 175 148
3 9 173 10
3 148 174 149
3 160 176 172
3 148 175 174
3 144 176 163
3 176 178 163
3 172 176 144
3 124 177 162
3 119 181 75
3 163 178 145
3 11 179 12
3 125 171 168
3 157 177 175
3 175 177 124
3 75 181 76
3 73 180 74
3 168 184 63
3 169 183 28
3 71 185 128
3 167 181 152
3 36 182 127
3 129 183 169
3 130 184 168
3 129 186 173
3 8 183 129
3 72 184 130
3 153 186 158
3 128 185 170
3 170 185 13
3 173 186 153
3 199 218 214
3 205 219 212
3 196 221 220
3 195 222 217
3 214 235 199
3 212 236 205
3 195 233 222
3 196 234 221
3 223 225 191
3 224 228 190
3 187 197 34
3 44 191 43
3 203 208 192
3 33 190 32
3 210 216 192
3 199 200 198
3 207 208 204
3 207 209 208
3 46 192 45
3 46 203 192
3 187 199 198
3 193 205 204
3 209 211 210
3 25 212 24
3 26 188 25
3 29 196 28
3 35 187 34
3 38 214 37
3 39 194 38
3 42 202 195
3 44 216 191
3 208 210 192
3 193 204 203
3 206 207 204
3 209 210 208
3 29 213 196
3 31 215 189
3 43 202 42
3 48 193 47
3 193 203 47
3 204 208 203
3 205 206 204
3 31 189 30
3 32 215 31
3 34 197 33
3 33 197 190
3 192 216 45
3 200 201 198
3 188 212 25
3 30 213 29
3 42 195 41
3 47 203 46
3 190 215 32
3 187 198 197
3 189 213 30
3 194 214 38
3 45 216 44
3 191 202 43
3 36 218 35
3 49 219 48
3 40 217 39
3 27 220 26
3 187 218 199
3 193 219 205
3 201 223 211
3 211 224 201
3 211 228 224
3 201 225 223
3 211 223 210
3 201 224 198
3 197 224 190
3 216 223 191
3 39 217 194
3 26 220 188
3 48 219 193
3 35 218 187
3 37 230 7
3 2 229 40
3 3 231 49
3 7 230 36
3 41 229 2
3 24 231 3
3 28 232 4
3 4 232 27
3 210 223 216
3 198 224 197
3 194 235 214
3 188 236 212
3 202 233 195
3 213 234 196
3 226 227 207
3 209 228 211
3 200 225 201
3 189 227 226
3 191 225 202
3 206 226 207
3 227 228 209
3 189 226 213
3 207 227 209
3 215 227 189
3 215 228 227
3 190 228 215
3 220 221 188
3 217 222 194
3 199 235 200
3 205 236 206
3 200 235 222
3 206 236 221
3 36 230 218
3 49 231 219
3 27 232 220
3 40 229 217
3 195 229 41
3 212 231 24
3 196 232 28
3 214 230 37
3 217 229 195
3 219 231 212
3 218 230 214
3 220 232 196
3 222 233 200
3 221 234 206
3 200 233 225
3 206 234 226
3 222 235 194
3 221 236 188
3 225 233 202
3 226 234 213
3 252 253 242
3 249 252 237
3 248 249 237
3 250 262 255
3 251 252 249
3 242 263 252
3 255 264 250
3 251 253 252
3 253 257 242
3 255 262 238
3 254 269 259
3 237 261 248
3 244 245 240
3 61 244 240
3 245 246 240
3 245 247 246
3 241 254 38
3 254 259 258
3 62 244 61
3 61 240 60
3 39 241 38
3 247 248 246
3 38 254 37
3 247 249 248
3 247 250 249
3 76 239 75
3 75 255 74
3 74 255 238
3 239 255 75
3 74 238 73
3 81 237 80
3 246 256 240
3 250 251 249
3 79 242 78
3 83 243 82
3 241 269 254
3 246 270 256
3 60 256 59
3 252 263 237
3 77 258 76
3 73 260 72
3 241 257 253
3 39 257 241
3 256 270 243
3 40 257 39
3 258 259 239
3 240 256 60
3 244 271 245
3 76 258 239
3 245 262 247
3 238 260 73
3 81 261 237
3 243 261 82
3 6 265 62
3 37 266 7
3 72 265 6
3 7 266 77
3 251 264 259
3 237 263 80
3 260 271 244
3 239 264 255
3 79 263 242
3 59 267 1
3 2 268 40
3 250 264 251
3 1 267 83
3 78 268 2
3 82 261 81
3 247 262 250
3 259 269 251
3 256 267 59
3 251 269 253
3 80 263 79
3 254 266 37
3 62 265 244
3 243 267 256
3 40 268 257
3 259 264 239
3 245 271 262
3 243 270 261
3 257 268 242
3 253 269 241
3 260 265 72
3 77 266 258
3 83 267 243
3 242 268 78
3 248 270 246
3 258 266 254
3 244 265 260
3 238 271 260
3 261 270 248
3 262 271 238
3 273 302 300
3 323 331 302
3 78 320 79
3 78 335 320
3 303 304 272
3 280 331 323
3 300 306 273
3 304 324 283
3 272 305 303
3 273 326 302
3 302 326 323
3 283 324 322
3 304 333 272
3 283 333 304
3 296 306 300
3 305 308 303
3 278 311 307
3 307 312 278
3 278 321 311
3 296 311 306
3 291 308 287
3 321 339 311
3 303 308 291
3 287 308 285
3 307 316 312
3 51 309 280
3 312 316 274
3 276 285 284
3 274 319 313
3 278 312 47
3 274 313 45
3 276 284 43
3 47 312 46
3 45 313 44
3 299 304 303
3 316 319 274
3 296 300 295
3 299 303 291
3 308 318 285
3 294 296 295
3 42 281 41
3 51 280 50
3 279 314 56
3 42 284 281
3 293 310 298
3 46 312 274
3 277 309 52
3 305 318 308
3 294 295 293
3 48 278 47
3 57 279 56
3 297 299 291
3 44 313 276
3 52 309 51
3 289 291 287
3 285 318 284
3 307 311 296
3 44 276 43
3 53 277 52
3 300 302 301
3 275 315 54
3 43 284 42
3 53 315 277
3 55 314 275
3 56 314 55
3 300 301 295
3 276 286 285
3 292 294 293
3 295 310 293
3 284 318 281
3 289 297 291
3 292 293 290
3 54 315 53
3 286 287 285
3 46 274 45
3 55 275 54
3 290 317 289
3 288 292 290
3 293 298 290
3 294 307 296
3 288 290 289
3 298 317 290
3 292 316 294
3 288 289 287
3 286 288 287
3 289 317 297
3 286 319 288
3 276 313 286
3 294 316 307
3 288 319 292
3 292 319 316
3 313 319 286
3 301 310 295
3 82 283 83
3 22 282 23
3 80 272 81
3 20 273 21
3 282 339 321
3 58 322 57
3 49 321 48
3 305 320 318
3 306 328 273
3 318 320 281
3 320 334 79
3 2 335 78
3 41 335 2
3 48 321 278
3 57 322 279
3 18 323 19
3 20 326 273
3 22 328 282
3 273 328 21
3 315 332 329
3 329 332 298
3 272 334 305
3 82 333 283
3 272 333 81
3 309 331 280
3 320 335 281
3 3 337 49
3 1 336 58
3 279 325 314
3 310 329 298
3 299 324 304
3 323 326 19
3 50 338 0
3 83 336 1
3 23 337 3
3 277 330 309
3 324 325 279
3 314 327 275
3 275 332 315
3 0 338 18
3 299 325 324
3 327 332 275
3 330 331 309
3 325 327 314
3 297 325 299
3 80 334 272
3 19 326 20
3 322 324 279
3 21 328 22
3 297 327 325
3 317 327 297
3 317 332 327
3 315 329 277
3 302 331 301
3 301 330 310
3 298 332 317
3 301 331 330
3 79 334 80
3 310 330 329
3 81 333 82
3 329 330 277
3 49 337 321
3 58 336 322
3 280 338 50
3 305 334 320
3 281 335 41
3 321 337 282
3 322 336 283
3 311 339 306
3 328 339 282
3 282 337 23
3 283 336 83
3 323 338 280
3 18 338 323
3 306 339 328
3 373 382 363
3 365 382 372
3 372 382 346
3 346 382 373
3 365 372 349
3 366 371 352
3 362 373 363
3 348 374 370
3 371 388 352
3 348 387 374
3 375 380 345
3 376 378 343
3 64 348 63
3 340 350 56
3 340 366 352
3 58 366 57
3 71 362 70
3 343 355 65
3 66 343 65
3 356 357 342
3 357 358 342
3 357 368 360
3 342 369 67
3 68 342 67
3 364 365 349
3 352 353 351
3 51 349 50
3 55 345 54
3 55 350 345
3 64 355 348
3 70 362 341
3 16 346 15
3 51 364 349
3 53 367 344
3 61 347 60
3 65 355 64
3 67 369 66
3 70 341 69
3 341 356 69
3 357 359 358
3 52 364 51
3 57 340 56
3 66 369 343
3 340 352 351
3 356 368 357
3 357 360 359
3 53 344 52
3 345 367 54
3 57 366 340
3 69 356 68
3 68 356 342
3 340 351 350
3 362 363 341
3 353 354 351
3 359 361 358
3 344 364 52
3 54 367 53
3 56 350 55
3 363 368 341
3 341 368 356
3 358 369 342
3 15 373 14
3 60 371 59
3 17 372 16
3 62 370 61
3 361 375 354
3 354 376 361
3 361 380 375
3 354 378 376
3 369 376 343
3 350 375 345
3 354 375 351
3 361 376 358
3 363 377 368
3 364 381 365
3 61 370 347
3 346 373 15
3 16 372 346
3 347 371 60
3 14 383 5
3 59 384 1
3 5 383 71
3 1 384 58
3 63 386 6
3 6 386 62
3 0 385 17
3 50 385 0
3 365 381 377
3 351 375 350
3 358 376 369
3 368 377 360
3 355 387 348
3 360 381 379
3 353 378 354
3 360 379 359
3 343 378 355
3 367 380 379
3 379 380 359
3 367 379 344
3 345 380 367
3 359 380 361
3 379 381 344
3 344 381 364
3 370 374 347
3 352 388 353
3 347 388 371
3 377 381 360
3 363 382 377
3 353 388 374
3 62 386 370
3 17 385 372
3 373 383 14
3 371 384 59
3 377 382 365
3 348 386 63
3 58 384 366
3 71 383 362
3 349 385 50
3 366 384 371
3 372 385 349
3 362 383 373
3 370 386 348
3 374 387 353
3 353 387 378
3 374 388 347
3 378 387 355

CELL_TYPES 774
5
5
5
5
5
5
5
5
5
5
5
5
5
5
5
5
5
5
5
5
5
5
5
5
5
5
5
5
5
5
5
5
5
5
5
5
5
5
5
5
5
5
5
5
5
5
5
5
5
5
5
5
5
5
5
5
5
5
5
5
5
5
5
5
5
5
5
5
5
5
5
5
5
5
5
5
5
5
5
5
5
5
5
5
5
5
5
5
5
5
5
5
5
5
5
5
5
5
5
5
5
5
5
5
5
5
5
5
5
5
5
5
5
5
5
5
5
5
5
5
5
5
5
5
5
5
5
5
5
5
5
5
5
5
5
5
5
5
5
5
5
5
5
5
5
5
5
5
5
5
5
5
5
5
5
5
5
5
5
5
5
5
5
5
5
5
5
5
5
5
5
5
5
5
5
5
5
5
5
5
5
5
5
5
5
5
5
5
5
5
5
5
5
5
5
5
5
5
5
5
5
5
5
5
5
5
5
5
5
5
5
5
5
5
5
5
5
5
5
5
5
5
5
5
5
5
5
5
5
5
5
5
5
5
5
5
5
5
5
5
5
5
5
5
5
5
5
5
5
5
5
5
5
5
5
5
5
5
5
5
5
5
5
5
5
5
5
5
5
5
5
5
5
5
5
5
5
5
5
5
5
5
5
5
5
5
5
5
5
5
5
5
5
5
5
5
5
5
5
5
5
5
5
5
5
5
5
5
5
5
5
5
5
5
5
5
5
5
5
5
5
5
5
5
5
5
5
5
5
5
5
5
5
5
5
5
5
5
5
5
5
5
5
5
5
5
5
5
5
5
5
5
5
5
5
5
5
5
5
5
5
5
5
5
5
5
5
5
5
5
5
5
5
5
5
5
5
5
5
5
5
5
5
5
5
5
5
5
5
5
5
5
5
5
5
5
5
5
5
5
5
5
5
5
5
5
5
5
5
5
5
5
5
5
5
5
5
5
5
5
5
5
5
5
5
5
5
5
5
5
5
5
5
5
5
5
5
5
5
5
5
5
5
5
5
5
5
5
5
5
5
5
5
5
5
5
5
5
5
5
5
5
5
5
5
5
5
5
5
5
5
5
5
5
5
5
5
5
5
5
5
5
5
5
5
5
5
5
5
5
5
5
5
5
5
5
5
5
5
5
5
5
5
5
5
5
5
5
5
5
5
5
5
5
5
5
5
5
5
5
5
5
5
5
5
5
5
5
5
5
5
5
5
5
5
5
5
5
5
5
5
5
5
5
5
5
5
5
5
5
5
5
5
5
5
5
5
5
5
5
5
5
5
5
5
5
5
5
5
5
5
5
5
5
5
5
5
5
5
5
5
5
5
5
5
5
5
5
5
5
5
5
5
5
5
5
5
5
5
5
5
5
5
5
5
5
5
5
5
5
5
5
5
5
5
5
5
5
5
5
5
5
5
5
5
5
5
5
5
5
5
5
5
5
5
5
5
5
5
5
5
5
5
5
5
5
5
5
5
5
5
5
5
5
5
5
5
5
5
5
5
5
5
5
5
5
5
5
5
5
5
5
5
5
5
5
5
5
5
5
5
5
5
5
5
5
5
5
5
5
5
5
5
5
5
5
5
5
5
5
5
5
5
5
5
5
5
5
5
5
5
5
5
5
5
5
5
5
5
5
5
5
5
5
5
5
5
5
5
5
5
5
5
5
5
5
5
5
5
5
5
5
5
5
5
5
5
5
5
5
5
5
5
5
5
5
5
5
5
5
5
5
5
5
5
5
5
5
5
5
5
5
5
5

CELL_DATA 774
SCALARS CellEntityIds int 1
LOOKUP_TABLE default
13
13
13
13
13
13
13
13
13
13
13
13
13
13
13
13
13
13
13
13
13
13
13
13
13
13
13
13
13
13
13
13
13
13
13
13
13
13
13
13
13
13
13
13
13
13
13
13
13
13
13
13
13
13
13
13
13
13
13
13
13
13
13
13
13
13
13
13
13
13
13
13
13
13
13
13
13
13
13
13
13
13
13
13
13
13
13
13
13
13
13
13
15
15
15
15
15
15
15
15
15
15
15
15
15
15
15
15
15
15
15
15
15
15
15
15
15
15
15
15
15
15
15
15
15
15
15
15
15
15
15
15
15
15
15
15
15
15
15
15
15
15
15
15
15
15
15
15
15
15
15
15
15
15
15
15
15
15
15
15
15
15
15
15
15
15
15
15
15
15
15
15
15
15
15
15
15
15
15
15
15
15
15
15
15
15
15
15
15
15
15
15
15
15
15
15
15
15
15
15
15
15
15
15
15
15
15
15
15
15
15
15
15
15
15
15
15
15
15
15
15
15
15
15
15
15
15
15
15
15
15
15
15
15
15
15
15
15
15
15
15
15
15
15
15
15
15
15
15
15
15
15
15
15
15
15
15
15
15
15
13
13
13
13
13
13
13
13
13
13
13
13
13
13
13
13
13
13
13
13
13
13
13
13
13
13
13
13
13
13
13
13
13
13
13
13
13
13
13
13
13
13
13
13
13
13
13
13
13
13
13
13
13
13
13
13
13
13
13
13
13
13
13
13
13
13
13
13
13
13
13
13
13
13
13
13
13
13
13
13
13
13
13
13
13
13
13
13
13
13
13
13
13
13
13
13
13
13
13
13
13
13
13
13
13
13
13
13
13
13
13
13
13
13
13
13
13
13
13
13
13
13
13
13
13
13
13
13
13
13
13
13
13
13
13
13
13
13
13
13
13
13
13
13
13
13
13
13
13
13
13
13
13
13
13
13
13
13
13
13
13
13
13
13
13
13
13
13
13
13
13
13
13
13
13
13
13
13
13
13
13
13
13
13
13
13
13
13
13
13
13
13
13
13
13
13
13
13
13
13
13
13
13
13
13
13
13
13
13
13
13
13
13
13
13
13
13
13
13
13
14
14
14
14
14
14
14
14
14
14
14
14
14
14
14
14
14
14
14
14
14
14
14
14
14
14
14
14
14
14
14
14
14
14
14
14
14
14
14
14
14
14
14
14
14
14
14
14
14
14
14
14
14
14
14
14
14
14
14
14
14
14
14
14
14
14
14
14
14
14
14
14
14
14
14
14
14
14
14
14
14
14
14
14
14
14
14
14
14
14
14
14
14
14
14
14
14
14
14
14
14
14
14
14
14
14
14
14
14
14
14
14
14
14
14
14
14
14
14
14
14
14
14
14
14
14
14
14
14
14
14
14
14
14
14
14
14
14
14
14
14
14
14
14
14
14
14
14
14
14
14
14
14
14
14
14
14
14
14
14
14
14
14
14
14
14
14
14
13
13
13
13
13
13
13
13
13
13
13
13
13
13
13
13
13
13
13
13
13
13
13
13
13
13
13
13
13
13
13
13
13
13
13
13
13
13
13
13
13
13
13
13
13
13
13
13
13
13
13
13
13
13
13
13
13
13
13
13
13
13
13
13
13
13
13
13
13
13
13
13
13
13
13
13
13
13
13
13
13
13
13
13
13
13
13
13
13
13
13
13
13
13
13
13
13
13
13
13
13
13
13
13
13
13
13
13
13
13
13
13
13
13
13
13
13
13
13
13
13
13
13
13
13
13
